LAMMPS data file via write_data, version 23 Jun 2022, timestep = 0

48 atoms
3 atom types

-4.121844819977641 11.143307167665641 xlo xhi
-2.379748216371669 6.433591392913669 ylo yhi
-2.9145844232047162 17.8795080631007 zlo zhi

Masses

1 207.2 # Pb
2 118.71 # Sn
3 127.6 # Te

Atoms # atomic

1 3 -4.121844819977641 -2.379748216371669 -2.9145844232047162
2 3 0.9665391759027289 -2.379748216371669 4.281477234332239
3 3 -0.3055568230668202 -0.1764133140492472 -2.9145844232047162
4 3 2.2386351748744504 -0.1764133140492472 0.6834464055637612
5 3 -2.8497488210080917 -0.1764133140492472 4.281477234332239
6 3 -1.5776528220363693 -2.379748216371669 0.6834464055637612
7 2 -2.8497488210080917 -0.1764133140492472 -1.1155690088204775
8 2 2.2386351748744504 -0.1764133140492472 6.080492648716478
9 2 -1.5776528220363693 -2.379748216371669 6.080492648716478
10 2 -0.3055568230668202 -0.1764133140492472 2.482461819948
11 2 0.9665391759027289 -2.379748216371669 -1.1155690088204775
12 2 -4.121844819977641 -2.379748216371669 2.482461819948
13 3 3.5107311738440004 -2.379748216371669 -2.9145844232047162
14 3 8.599115169724367 -2.379748216371669 4.281477234332239
15 3 7.32701917075482 -0.1764133140492472 -2.9145844232047162
16 3 9.87121116869609 -0.1764133140492472 0.6834464055637612
17 3 4.782827172813549 -0.1764133140492472 4.281477234332239
18 3 6.054923171785271 -2.379748216371669 0.6834464055637612
19 2 4.782827172813549 -0.1764133140492472 -1.1155690088204775
20 2 9.87121116869609 -0.1764133140492472 6.080492648716478
21 2 6.054923171785271 -2.379748216371669 6.080492648716478
22 2 7.32701917075482 -0.1764133140492472 2.482461819948
23 2 8.599115169724367 -2.379748216371669 -1.1155690088204775
24 2 3.5107311738440004 -2.379748216371669 2.482461819948
25 3 -4.121844819977641 2.026921588271 -2.9145844232047162
26 3 0.9665391759027289 2.026921588271 4.281477234332239
27 3 -0.3055568230668202 4.230256490593421 -2.9145844232047162
28 3 2.2386351748744504 4.230256490593421 0.6834464055637612
29 3 -2.8497488210080917 4.230256490593421 4.281477234332239
30 3 -1.5776528220363693 2.026921588271 0.6834464055637612
31 2 -2.8497488210080917 4.230256490593421 -1.1155690088204775
32 2 2.2386351748744504 4.230256490593421 6.080492648716478
33 2 -1.5776528220363693 2.026921588271 6.080492648716478
34 2 -0.3055568230668202 4.230256490593421 2.482461819948
35 2 0.9665391759027289 2.026921588271 -1.1155690088204775
36 2 -4.121844819977641 2.026921588271 2.482461819948
37 3 3.5107311738440004 2.026921588271 -2.9145844232047162
38 3 8.599115169724367 2.026921588271 4.281477234332239
39 3 7.32701917075482 4.230256490593421 -2.9145844232047162
40 3 9.87121116869609 4.230256490593421 0.6834464055637612
41 3 4.782827172813549 4.230256490593421 4.281477234332239
42 3 6.054923171785271 2.026921588271 0.6834464055637612
43 2 4.782827172813549 4.230256490593421 -1.1155690088204775
44 2 9.87121116869609 4.230256490593421 6.080492648716478
45 2 6.054923171785271 2.026921588271 6.080492648716478
46 2 7.32701917075482 4.230256490593421 2.482461819948
47 2 8.599115169724367 2.026921588271 -1.1155690088204775
48 2 3.5107311738440004 2.026921588271 2.482461819948